Generated by Interchange
40
    12KW      C    1  -0.060  -0.225   0.063
    12KW      C    2  -0.098  -0.097   0.096
    12KW      C    3   0.075  -0.265   0.063
    12KW      C    4   0.175  -0.177   0.097
    12KW      C    5  -0.361   0.344  -0.152
    12KW      C    6  -0.483   0.138  -0.170
    12KW      C    7  -0.378   0.205  -0.114
    12KW      C    8  -0.290   0.145  -0.024
    12KW      C    9  -0.306   0.011   0.014
    12KW      C   10  -0.415  -0.053  -0.047
    12KW      C   11  -0.158  -0.328   0.021
    12KW      C   12   0.009  -0.012   0.131
    12KW      C   13   0.482  -0.033  -0.022
    12KW      C   14   0.297   0.115   0.053
    12KW      C   15   0.242   0.040   0.166
    12KW      C   16   0.415   0.185  -0.119
    12KW      C   17  -0.500   0.006  -0.135
    12KW      F   18  -0.099  -0.451   0.008
    12KW      N   19  -0.347   0.454  -0.183
    12KW      O   20  -0.222  -0.047   0.101
    12KW     Cl   21  -0.634  -0.082  -0.206
    12KW      N   22   0.136  -0.052   0.130
    12KW      F   23  -0.250  -0.342   0.127
    12KW      F   24  -0.224  -0.298  -0.095
    12KW      O   25  -0.012   0.108   0.164
    12KW      N   26   0.251   0.234   0.011
    12KW      N   27   0.320   0.279  -0.093
    12KW      N   28   0.400   0.087  -0.030
    12KW      O   29   0.503   0.186  -0.209
    12KW      H   30   0.102  -0.366   0.036
    12KW      H   31   0.276  -0.212   0.096
    12KW      H   32  -0.548   0.187  -0.239
    12KW      H   33  -0.212   0.207   0.014
    12KW      H   34  -0.435  -0.158  -0.022
    12KW      H   35   0.451  -0.104  -0.102
    12KW      H   36   0.476  -0.080   0.077
    12KW      H   37   0.590  -0.008  -0.037
    12KW      H   38   0.202   0.107   0.246
    12KW      H   39   0.325  -0.015   0.213
    12KW      H   40   0.306   0.368  -0.146
  5.0000000  5.0000000  5.0000000
