[ defaults ]
; nbfunc	comb-rule	gen-pairs	fudgeLJ	fudgeQQ
     1	     2	yes   	0.500000	0.833333

[ atomtypes ]
;type, bondingtype, atomic_number, mass, charge, ptype, sigma, epsilon
2KW_0      	     6	12.01078	0.0000000000000000	A    	0.3480646886945065	0.3635030558377792
2KW_1      	     6	12.01078	0.0000000000000000	A    	0.3480646886945065	0.3635030558377792
2KW_2      	     6	12.01078	0.0000000000000000	A    	0.3480646886945065	0.3635030558377792
2KW_3      	     6	12.01078	0.0000000000000000	A    	0.3480646886945065	0.3635030558377792
2KW_4      	     6	12.01078	0.0000000000000000	A    	0.3399669508423535	0.87864
2KW_5      	     6	12.01078	0.0000000000000000	A    	0.3480646886945065	0.3635030558377792
2KW_6      	     6	12.01078	0.0000000000000000	A    	0.3480646886945065	0.3635030558377792
2KW_7      	     6	12.01078	0.0000000000000000	A    	0.3480646886945065	0.3635030558377792
2KW_8      	     6	12.01078	0.0000000000000000	A    	0.3480646886945065	0.3635030558377792
2KW_9      	     6	12.01078	0.0000000000000000	A    	0.3480646886945065	0.3635030558377792
2KW_10     	     6	12.01078	0.0000000000000000	A    	0.337953176162662	0.4553891161106184
2KW_11     	     6	12.01078	0.0000000000000000	A    	0.3480646886945065	0.3635030558377792
2KW_12     	     6	12.01078	0.0000000000000000	A    	0.337953176162662	0.4553891161106184
2KW_13     	     6	12.01078	0.0000000000000000	A    	0.3480646886945065	0.3635030558377792
2KW_14     	     6	12.01078	0.0000000000000000	A    	0.337953176162662	0.4553891161106184
2KW_15     	     6	12.01078	0.0000000000000000	A    	0.3480646886945065	0.3635030558377792
2KW_16     	     6	12.01078	0.0000000000000000	A    	0.3480646886945065	0.3635030558377792
2KW_17     	     9	18.99840325	0.0000000000000000	A    	0.3118145513491187	0.255224
2KW_18     	     7	14.00672	0.0000000000000000	A    	0.3206876023663901	0.7016212989374017
2KW_19     	     8	15.99943	0.0000000000000000	A    	0.3025106490435313	0.7048581468486769
2KW_20     	    17	35.4532	0.0000000000000000	A    	0.3307527806460624	1.111270837866897
2KW_21     	     7	14.00672	0.0000000000000000	A    	0.3206876023663901	0.7016212989374017
2KW_22     	     9	18.99840325	0.0000000000000000	A    	0.3118145513491187	0.255224
2KW_23     	     9	18.99840325	0.0000000000000000	A    	0.3118145513491187	0.255224
2KW_24     	     8	15.99943	0.0000000000000000	A    	0.3039812205065809	0.8795023257036865
2KW_25     	     7	14.00672	0.0000000000000000	A    	0.3206876023663901	0.7016212989374017
2KW_26     	     7	14.00672	0.0000000000000000	A    	0.3206876023663901	0.7016212989374017
2KW_27     	     7	14.00672	0.0000000000000000	A    	0.3206876023663901	0.7016212989374017
2KW_28     	     8	15.99943	0.0000000000000000	A    	0.3039812205065809	0.8795023257036865
2KW_29     	     1	1.007947	0.0000000000000000	A    	0.2572581535063279	0.06531785996356952
2KW_30     	     1	1.007947	0.0000000000000000	A    	0.2453626527729973	0.05483968129296432
2KW_31     	     1	1.007947	0.0000000000000000	A    	0.2572581535063279	0.06531785996356952
2KW_32     	     1	1.007947	0.0000000000000000	A    	0.2572581535063279	0.06531785996356952
2KW_33     	     1	1.007947	0.0000000000000000	A    	0.2572581535063279	0.06531785996356952
2KW_34     	     1	1.007947	0.0000000000000000	A    	0.2583225710839196	0.068656285380106
2KW_35     	     1	1.007947	0.0000000000000000	A    	0.2583225710839196	0.068656285380106
2KW_36     	     1	1.007947	0.0000000000000000	A    	0.2583225710839196	0.068656285380106
2KW_37     	     1	1.007947	0.0000000000000000	A    	0.2583225710839196	0.068656285380106
2KW_38     	     1	1.007947	0.0000000000000000	A    	0.2583225710839196	0.068656285380106
2KW_39     	     1	1.007947	0.0000000000000000	A    	0.1103427677297317	0.05895596890015097

[ moleculetype ]
2KW	         3

[ atoms ]
;index, atom type, resnum, resname, name, cgnr, charge, mass
     1 2KW_0        1 2KW      C          1     -0.080275000000     12.010780000000
     2 2KW_1        1 2KW      C          1      0.032825000000     12.010780000000
     3 2KW_2        1 2KW      C          1     -0.213075000000     12.010780000000
     4 2KW_3        1 2KW      C          1      0.020525000000     12.010780000000
     5 2KW_4        1 2KW      C          1      0.231725000000     12.010780000000
     6 2KW_5        1 2KW      C          1     -0.084075000000     12.010780000000
     7 2KW_6        1 2KW      C          1     -0.006075000000     12.010780000000
     8 2KW_7        1 2KW      C          1     -0.063075000000     12.010780000000
     9 2KW_8        1 2KW      C          1      0.077025000000     12.010780000000
    10 2KW_9        1 2KW      C          1     -0.106075000000     12.010780000000
    11 2KW_10       1 2KW      C          1      0.693025000000     12.010780000000
    12 2KW_11       1 2KW      C          1      0.683625000000     12.010780000000
    13 2KW_12       1 2KW      C          1      0.072225000000     12.010780000000
    14 2KW_13       1 2KW      C          1      0.306825000000     12.010780000000
    15 2KW_14       1 2KW      C          1      0.074625000000     12.010780000000
    16 2KW_15       1 2KW      C          1      0.729425000000     12.010780000000
    17 2KW_16       1 2KW      C          1      0.013325000000     12.010780000000
    18 2KW_17       1 2KW      F          1     -0.227375000000     18.998403250000
    19 2KW_18       1 2KW      N          1     -0.349875000000     14.006720000000
    20 2KW_19       1 2KW      O          1     -0.230275000000     15.999430000000
    21 2KW_20       1 2KW      Cl         1     -0.069475000000     35.453200000000
    22 2KW_21       1 2KW      N          1     -0.334075000000     14.006720000000
    23 2KW_22       1 2KW      F          1     -0.227375000000     18.998403250000
    24 2KW_23       1 2KW      F          1     -0.227375000000     18.998403250000
    25 2KW_24       1 2KW      O          1     -0.633575000000     15.999430000000
    26 2KW_25       1 2KW      N          1     -0.497375000000     14.006720000000
    27 2KW_26       1 2KW      N          1     -0.264975000000     14.006720000000
    28 2KW_27       1 2KW      N          1     -0.366375000000     14.006720000000
    29 2KW_28       1 2KW      O          1     -0.587575000000     15.999430000000
    30 2KW_29       1 2KW      H          1      0.179925000000      1.007947000000
    31 2KW_30       1 2KW      H          1      0.180925000000      1.007947000000
    32 2KW_31       1 2KW      H          1      0.162925000000      1.007947000000
    33 2KW_32       1 2KW      H          1      0.179925000000      1.007947000000
    34 2KW_33       1 2KW      H          1      0.173925000000      1.007947000000
    35 2KW_34       1 2KW      H          1      0.067625000000      1.007947000000
    36 2KW_35       1 2KW      H          1      0.067625000000      1.007947000000
    37 2KW_36       1 2KW      H          1      0.067625000000      1.007947000000
    38 2KW_37       1 2KW      H          1      0.102125000000      1.007947000000
    39 2KW_38       1 2KW      H          1      0.102125000000      1.007947000000
    40 2KW_39       1 2KW      H          1      0.348425000000      1.007947000000

[ pairs ]
;ai    aj   funct
    20	    33	     1
    15	    31	     1
    11	    12	     1
     6	    33	     1
    13	    15	     1
     5	    33	     1
    11	    30	     1
     5	    32	     1
     4	    25	     1
    17	    20	     1
     1	    22	     1
     7	    10	     1
    14	    35	     1
     7	    21	     1
     3	    20	     1
    15	    16	     1
    13	    26	     1
     8	    32	     1
     1	    25	     1
    29	    40	     1
     2	     8	     1
     4	    38	     1
    26	    38	     1
    26	    39	     1
     9	    21	     1
    21	    34	     1
    15	    27	     1
     2	     4	     1
    20	    22	     1
     2	    18	     1
    26	    29	     1
     1	    31	     1
    22	    30	     1
     1	     9	     1
    14	    36	     1
    13	    27	     1
    14	    37	     1
    12	    14	     1
    20	    25	     1
     3	    18	     1
    14	    40	     1
     2	    30	     1
    13	    29	     1
     7	    20	     1
    30	    31	     1
     4	    39	     1
    20	    34	     1
     6	    34	     1
    14	    29	     1
    16	    35	     1
    10	    33	     1
     6	     9	     1
    10	    32	     1
     5	     9	     1
     4	    14	     1
     8	    34	     1
    11	    20	     1
     2	    10	     1
    28	    38	     1
     2	    23	     1
    28	    39	     1
     2	    24	     1
    28	    40	     1
     3	    12	     1
     6	    19	     1
    12	    31	     1
     5	    17	     1
    21	    32	     1
     3	    23	     1
     3	    24	     1
    16	    36	     1
     2	    15	     1
    15	    25	     1
    16	    37	     1
     8	    19	     1
     8	    17	     1
     3	    15	     1
    22	    26	     1
    22	    28	     1
     9	    12	     1
     4	    11	     1
    12	    38	     1
    12	    39	     1

[ bonds ]
;ai    aj   funct r k
     1      2      1      0.137168856202  334016.498331725656 
     1      3      1      0.145462892503  233580.248617646750 
     1     11      1      0.149864681646  242452.869388089370 
     2     12      1      0.145462892503  233580.248617646750 
     2     20      1      0.136411698612  309065.974698706530 
     3      4      1      0.137168856202  334016.498331725656 
     3     30      1      0.108535849592  332422.631675317942 
     4     22      1      0.139016055469  326381.745633409882 
     4     31      1      0.108535849592  332422.631675317942 
     5      7      1      0.142956214056  681386.398087096051 
     5     19      1      0.116576652558  678728.458210146520 
     6      7      1      0.138719322718  301905.092578520998 
     6     17      1      0.138719322718  301905.092578520998 
     6     32      1      0.108535849592  332422.631675317942 
     7      8      1      0.138719322718  301905.092578520998 
     8      9      1      0.138719322718  301905.092578520998 
     8     33      1      0.108535849592  332422.631675317942 
     9     10      1      0.138719322718  301905.092578520998 
     9     20      1      0.136294580649  356218.264001121745 
    10     17      1      0.138719322718  301905.092578520998 
    10     34      1      0.108535849592  332422.631675317942 
    11     18      1      0.135869085805  284889.572610885079 
    11     23      1      0.135869085805  284889.572610885079 
    11     24      1      0.135869085805  284889.572610885079 
    12     22      1      0.138189777668  412347.817359175009 
    12     25      1      0.122519838622  487602.327766196802 
    13     28      1      0.145009858627  294600.927775905351 
    13     35      1      0.109389949263  309655.084322414012 
    13     36      1      0.109389949263  309655.084322414012 
    13     37      1      0.109389949263  309655.084322414012 
    14     15      1      0.149864681646  242452.869388089370 
    14     26      1      0.130482617999  422987.308773913654 
    14     28      1      0.139016055469  326381.745633409882 
    15     22      1      0.145009858627  294600.927775905351 
    15     38      1      0.109389949263  309655.084322414012 
    15     39      1      0.109389949263  309655.084322414012 
    16     27      1      0.138189777668  412347.817359175009 
    16     28      1      0.138189777668  412347.817359175009 
    16     29      1      0.122519838622  487602.327766196802 
    17     21      1      0.174606603706  182441.454244360822 
    26     27      1      0.135514512545  347354.169914067257 
    27     40      1      0.101948186503  422704.914414302446 

[ angles ]
;ai    aj   ak   funct theta  k
     1      2     12      1     126.806242045100     484.492885493347 
     1      2     20      1     126.806242045100     484.492885493347 
     1      3      4      1     126.806242045100     484.492885493347 
     1      3     30      1     129.183592992600     285.070774532144 
     1     11     18      1     116.547586263400     445.222086509286 
     1     11     23      1     116.547586263400     445.222086509286 
     1     11     24      1     116.547586263400     445.222086509286 
     2      1      3      1     126.806242045100     484.492885493347 
     2      1     11      1     126.806242045100     484.492885493347 
     2     12     22      1     126.806242045100     484.492885493347 
     2     12     25      1     126.806242045100     484.492885493347 
     2     20      9      1     110.353880618100     544.678275491328 
     3      1     11      1     126.806242045100     484.492885493347 
     3      4     22      1     126.806242045100     484.492885493347 
     3      4     31      1     129.183592992600     285.070774532144 
     4      3     30      1     129.183592992600     285.070774532144 
     4     22     12      1     117.346557051400     463.769802376852 
     4     22     15      1     117.346557051400     463.769802376852 
     5      7      6      1     126.806242045100     484.492885493347 
     5      7      8      1     126.806242045100     484.492885493347 
     6      7      8      1     126.806242045100     484.492885493347 
     6     17     10      1     126.806242045100     484.492885493347 
     6     17     21      1     126.806242045100     484.492885493347 
     7      5     19      1     180.000000000000     280.912221406048 
     7      6     17      1     126.806242045100     484.492885493347 
     7      6     32      1     129.183592992600     285.070774532144 
     7      8      9      1     126.806242045100     484.492885493347 
     7      8     33      1     129.183592992600     285.070774532144 
     8      9     10      1     126.806242045100     484.492885493347 
     8      9     20      1     126.806242045100     484.492885493347 
     9      8     33      1     129.183592992600     285.070774532144 
     9     10     17      1     126.806242045100     484.492885493347 
     9     10     34      1     129.183592992600     285.070774532144 
    10      9     20      1     126.806242045100     484.492885493347 
    10     17     21      1     126.806242045100     484.492885493347 
    12      2     20      1     126.806242045100     484.492885493347 
    12     22     15      1     117.346557051400     463.769802376852 
    13     28     14      1     117.346557051400     463.769802376852 
    13     28     16      1     117.346557051400     463.769802376852 
    14     15     22      1     116.547586263400     445.222086509286 
    14     15     38      1     116.547586263400     445.222086509286 
    14     15     39      1     116.547586263400     445.222086509286 
    14     26     27      1     112.871400968100     460.899611617895 
    14     28     16      1     117.346557051400     463.769802376852 
    15     14     26      1     129.802730460800     331.608082005356 
    15     14     28      1     129.802730460800     331.608082005356 
    16     27     26      1     117.346557051400     463.769802376852 
    16     27     40      1     115.507132767400     530.901282784327 
    17      6     32      1     129.183592992600     285.070774532144 
    17     10     34      1     129.183592992600     285.070774532144 
    18     11     23      1     116.547586263400     445.222086509286 
    18     11     24      1     116.547586263400     445.222086509286 
    22      4     31      1     129.183592992600     285.070774532144 
    22     12     25      1     126.806242045100     484.492885493347 
    22     15     38      1     116.547586263400     445.222086509286 
    22     15     39      1     116.547586263400     445.222086509286 
    23     11     24      1     116.547586263400     445.222086509286 
    26     14     28      1     126.806242045100     484.492885493347 
    26     27     40      1     115.507132767400     530.901282784327 
    27     16     28      1     126.806242045100     484.492885493347 
    27     16     29      1     129.802730460800     331.608082005356 
    28     13     35      1     116.547586263400     445.222086509286 
    28     13     36      1     116.547586263400     445.222086509286 
    28     13     37      1     116.547586263400     445.222086509286 
    28     16     29      1     129.802730460800     331.608082005356 
    35     13     36      1     115.603099953300     408.161690475075 
    35     13     37      1     115.603099953300     408.161690475075 
    36     13     37      1     115.603099953300     408.161690475075 
    38     15     39      1     115.603099953300     408.161690475075 

[ dihedrals ]
;ai    aj   ak   al   funct phi  k
     1     2    12    22     1    180.000000000000      4.173190890070                 2
     1     2    12    25     1    180.000000000000      0.982250750828                 2
     1     2    12    25     1      0.000000000000      1.986341084453                 3
     1     2    20     9     1    180.000000000000      6.410861677363                 2
     1     3     4    22     1    180.000000000000     22.153623103850                 2
     1     3     4    31     1    180.000000000000     22.153623103850                 2
     2     1     3     4     1    180.000000000000      4.866977563957                 2
     2     1     3    30     1    180.000000000000      4.866977563957                 2
     2     1    11    18     1      0.000000000000     -1.549482649691                 2
     2     1    11    23     1      0.000000000000     -1.549482649691                 2
     2     1    11    24     1      0.000000000000     -1.549482649691                 2
     2    12    22     4     1    180.000000000000      7.569054279773                 2
     2    12    22     4     1      0.000000000000     -0.201513062842                 1
     2    12    22    15     1    180.000000000000      7.569054279773                 2
     2    12    22    15     1      0.000000000000     -0.201513062842                 1
     2    20     9     8     1    180.000000000000      6.410861677363                 2
     2    20     9    10     1    180.000000000000      6.410861677363                 2
     3     1     2    12     1    180.000000000000     22.153623103850                 2
     3     1     2    20     1    180.000000000000     22.153623103850                 2
     3     1    11    18     1      0.000000000000      0.111501038139                 3
     3     1    11    23     1      0.000000000000      0.111501038139                 3
     3     1    11    24     1      0.000000000000      0.111501038139                 3
     3     4    22    12     1    180.000000000000      2.935007829798                 2
     3     4    22    15     1    180.000000000000      2.935007829798                 2
     4     3     1    11     1    180.000000000000      4.866977563957                 2
     4    22    12    25     1    180.000000000000      7.569054279773                 2
     4    22    12    25     1      0.000000000000     -0.201513062842                 1
     4    22    15    14     1    180.000000000000     -2.883499339083                 2
     4    22    15    14     1      0.000000000000      1.141330947302                 1
     4    22    15    38     1      0.000000000000      0.762485897686                 2
     4    22    15    38     1      0.000000000000      0.124362804952                 3
     4    22    15    39     1      0.000000000000      0.762485897686                 2
     4    22    15    39     1      0.000000000000      0.124362804952                 3
     5     7     6    17     1    180.000000000000     15.321515534534                 2
     5     7     6    32     1    180.000000000000     15.321515534534                 2
     5     7     8     9     1    180.000000000000     15.321515534534                 2
     5     7     8    33     1    180.000000000000     15.321515534534                 2
     6     7     5    19     1      0.000000000000      0.000000000000                 1
     6     7     8     9     1    180.000000000000     15.321515534534                 2
     6     7     8    33     1    180.000000000000     15.321515534534                 2
     6    17    10     9     1    180.000000000000     15.321515534534                 2
     6    17    10    34     1    180.000000000000     15.321515534534                 2
     7     6    17    10     1    180.000000000000     15.321515534534                 2
     7     6    17    21     1    180.000000000000     15.321515534534                 2
     7     8     9    10     1    180.000000000000     15.321515534534                 2
     7     8     9    20     1    180.000000000000     15.321515534534                 2
     8     7     5    19     1      0.000000000000      0.000000000000                 1
     8     7     6    17     1    180.000000000000     15.321515534534                 2
     8     7     6    32     1    180.000000000000     15.321515534534                 2
     8     9    10    17     1    180.000000000000     15.321515534534                 2
     8     9    10    34     1    180.000000000000     15.321515534534                 2
     9    10    17    21     1    180.000000000000     15.321515534534                 2
     9    20     2    12     1    180.000000000000      6.410861677363                 2
    10     9     8    33     1    180.000000000000     15.321515534534                 2
    10    17     6    32     1    180.000000000000     15.321515534534                 2
    11     1     2    12     1    180.000000000000     22.153623103850                 2
    11     1     2    20     1    180.000000000000     22.153623103850                 2
    11     1     3    30     1    180.000000000000      4.866977563957                 2
    12    22     4    31     1    180.000000000000      2.935007829798                 2
    12    22    15    14     1    180.000000000000     -2.883499339083                 2
    12    22    15    14     1      0.000000000000      1.141330947302                 1
    12    22    15    38     1      0.000000000000      0.762485897686                 2
    12    22    15    38     1      0.000000000000      0.124362804952                 3
    12    22    15    39     1      0.000000000000      0.762485897686                 2
    12    22    15    39     1      0.000000000000      0.124362804952                 3
    13    28    14    15     1    180.000000000000      6.596778357662                 2
    13    28    14    26     1    180.000000000000      6.596778357662                 2
    13    28    16    27     1    180.000000000000      6.596778357662                 2
    13    28    16    29     1    180.000000000000      6.596778357662                 2
    14    26    27    16     1      0.000000000000     -0.397934023706                 3
    14    26    27    16     1    180.000000000000      6.503758359007                 2
    14    26    27    40     1      0.000000000000     -0.397934023706                 3
    14    26    27    40     1    180.000000000000      6.503758359007                 2
    14    28    13    35     1      0.000000000000      0.762485897686                 2
    14    28    13    35     1      0.000000000000      0.124362804952                 3
    14    28    13    36     1      0.000000000000      0.762485897686                 2
    14    28    13    36     1      0.000000000000      0.124362804952                 3
    14    28    13    37     1      0.000000000000      0.762485897686                 2
    14    28    13    37     1      0.000000000000      0.124362804952                 3
    14    28    16    27     1    180.000000000000      6.596778357662                 2
    14    28    16    29     1    180.000000000000      6.596778357662                 2
    15    14    26    27     1    180.000000000000     28.186614206504                 2
    15    14    28    16     1    180.000000000000      6.596778357662                 2
    15    22     4    31     1    180.000000000000      2.935007829798                 2
    15    22    12    25     1    180.000000000000      7.569054279773                 2
    15    22    12    25     1      0.000000000000     -0.201513062842                 1
    16    28    13    35     1      0.000000000000      0.762485897686                 2
    16    28    13    35     1      0.000000000000      0.124362804952                 3
    16    28    13    36     1      0.000000000000      0.762485897686                 2
    16    28    13    36     1      0.000000000000      0.124362804952                 3
    16    28    13    37     1      0.000000000000      0.762485897686                 2
    16    28    13    37     1      0.000000000000      0.124362804952                 3
    16    28    14    26     1    180.000000000000      6.596778357662                 2
    17    10     9    20     1    180.000000000000     15.321515534534                 2
    20     2    12    22     1    180.000000000000      4.173190890070                 2
    20     2    12    25     1    180.000000000000      4.173190890070                 2
    20     9     8    33     1    180.000000000000     15.321515534534                 2
    20     9    10    34     1    180.000000000000     15.321515534534                 2
    21    17     6    32     1    180.000000000000     15.321515534534                 2
    21    17    10    34     1    180.000000000000     15.321515534534                 2
    22     4     3    30     1    180.000000000000     22.153623103850                 2
    22    15    14    26     1      0.000000000000     -1.549482649691                 2
    22    15    14    28     1    180.000000000000     -1.556339668180                 1
    22    15    14    28     1    180.000000000000      1.682859881397                 2
    26    14    15    38     1      0.000000000000     -1.549482649691                 2
    26    14    15    39     1      0.000000000000     -1.549482649691                 2
    26    27    16    28     1    180.000000000000      6.596778357662                 2
    26    27    16    29     1    180.000000000000      6.596778357662                 2
    27    26    14    28     1    180.000000000000     28.186614206504                 2
    28    14    15    38     1      0.000000000000      0.111501038139                 3
    28    14    15    39     1      0.000000000000      0.111501038139                 3
    28    16    27    40     1    180.000000000000      6.596778357662                 2
    29    16    27    40     1    180.000000000000      6.596778357662                 2
    30     3     4    31     1    180.000000000000     22.153623103850                 2
    27    16    26    40     4    180.000000000000      1.534133333333                 2
     4    31     3    22     4    180.000000000000      1.534133333333                 2
     3     1     4    30     4    180.000000000000      1.534133333333                 2
    28    14    16    13     4    180.000000000000      1.394666666667                 2
     8     9    33     7     4    180.000000000000      1.534133333333                 2
    28    16    13    14     4    180.000000000000      1.394666666667                 2
     3    30     1     4     4    180.000000000000      1.534133333333                 2
     9    20     8    10     4    180.000000000000      1.534133333333                 2
    16    28    29    27     4    180.000000000000      1.534133333333                 2
     4     3    22    31     4    180.000000000000      1.534133333333                 2
    17    21     6    10     4    180.000000000000      1.534133333333                 2
     6    17    32     7     4    180.000000000000      1.534133333333                 2
    12     2    22    25     4    180.000000000000      1.534133333333                 2
    17    10    21     6     4    180.000000000000      1.534133333333                 2
    27    40    16    26     4    180.000000000000      1.534133333333                 2
     1    11     2     3     4    180.000000000000      1.534133333333                 2
     8    33     7     9     4    180.000000000000      1.534133333333                 2
    14    28    15    26     4    180.000000000000     14.644000000000                 2
    16    27    28    29     4    180.000000000000      1.534133333333                 2
    22    15     4    12     4    180.000000000000      1.394666666667                 2
     1     3    11     2     4    180.000000000000      1.534133333333                 2
     2     1    12    20     4    180.000000000000      1.534133333333                 2
     6     7    17    32     4    180.000000000000      1.534133333333                 2
     4    22    31     3     4    180.000000000000      1.534133333333                 2
    17     6    10    21     4    180.000000000000      1.534133333333                 2
    22    12    15     4     4    180.000000000000      1.394666666667                 2
    10    17    34     9     4    180.000000000000      1.534133333333                 2
    14    26    28    15     4    180.000000000000     14.644000000000                 2
     2    20     1    12     4    180.000000000000      1.534133333333                 2
    27    26    40    16     4    180.000000000000      1.534133333333                 2
     8     7     9    33     4    180.000000000000      1.534133333333                 2
    10    34     9    17     4    180.000000000000      1.534133333333                 2
    12    22    25     2     4    180.000000000000      1.534133333333                 2
    10     9    17    34     4    180.000000000000      1.534133333333                 2
    28    13    14    16     4    180.000000000000      1.394666666667                 2
     7     6     8     5     4    180.000000000000      1.534133333333                 2
     7     8     5     6     4    180.000000000000      1.534133333333                 2
     3     4    30     1     4    180.000000000000      1.534133333333                 2
     2    12    20     1     4    180.000000000000      1.534133333333                 2
     7     5     6     8     4    180.000000000000      1.534133333333                 2
     1     2     3    11     4    180.000000000000      1.534133333333                 2
    14    15    26    28     4    180.000000000000     14.644000000000                 2
     9     8    10    20     4    180.000000000000      1.534133333333                 2
     9    10    20     8     4    180.000000000000      1.534133333333                 2
    22     4    12    15     4    180.000000000000      1.394666666667                 2
    12    25     2    22     4    180.000000000000      1.534133333333                 2
    16    29    27    28     4    180.000000000000      1.534133333333                 2
     6    32     7    17     4    180.000000000000      1.534133333333                 2

[ settles ]
;i  funct   dOH  dHH


[ exclusions ]
;ai    aj


[ system ]
;name
FOO

[ molecules ]
;name	number
2KW	1

